# vtk DataFile Version 2.0
QuadtreeAggregations Generated Mesh
ASCII
DATASET UNSTRUCTURED_GRID
POINTS 81 double
0.000000 0.000000 0.0
0.125000 0.000000 0.0
0.125000 0.125000 0.0
0.000000 0.125000 0.0
0.250000 0.000000 0.0
0.250000 0.125000 0.0
0.375000 0.000000 0.0
0.375000 0.125000 0.0
0.500000 0.000000 0.0
0.500000 0.125000 0.0
0.625000 0.000000 0.0
0.625000 0.125000 0.0
0.750000 0.000000 0.0
0.750000 0.125000 0.0
0.875000 0.000000 0.0
0.875000 0.125000 0.0
1.000000 0.000000 0.0
1.000000 0.125000 0.0
0.125000 0.250000 0.0
0.000000 0.250000 0.0
0.250000 0.250000 0.0
0.375000 0.250000 0.0
0.500000 0.250000 0.0
0.625000 0.250000 0.0
0.750000 0.250000 0.0
0.875000 0.250000 0.0
1.000000 0.250000 0.0
0.125000 0.375000 0.0
0.000000 0.375000 0.0
0.250000 0.375000 0.0
0.375000 0.375000 0.0
0.500000 0.375000 0.0
0.625000 0.375000 0.0
0.750000 0.375000 0.0
0.875000 0.375000 0.0
1.000000 0.375000 0.0
0.125000 0.500000 0.0
0.000000 0.500000 0.0
0.250000 0.500000 0.0
0.375000 0.500000 0.0
0.500000 0.500000 0.0
0.625000 0.500000 0.0
0.750000 0.500000 0.0
0.875000 0.500000 0.0
1.000000 0.500000 0.0
0.125000 0.625000 0.0
0.000000 0.625000 0.0
0.250000 0.625000 0.0
0.375000 0.625000 0.0
0.500000 0.625000 0.0
0.625000 0.625000 0.0
0.750000 0.625000 0.0
0.875000 0.625000 0.0
1.000000 0.625000 0.0
0.125000 0.750000 0.0
0.000000 0.750000 0.0
0.250000 0.750000 0.0
0.375000 0.750000 0.0
0.500000 0.750000 0.0
0.625000 0.750000 0.0
0.750000 0.750000 0.0
0.875000 0.750000 0.0
1.000000 0.750000 0.0
0.125000 0.875000 0.0
0.000000 0.875000 0.0
0.250000 0.875000 0.0
0.375000 0.875000 0.0
0.500000 0.875000 0.0
0.625000 0.875000 0.0
0.750000 0.875000 0.0
0.875000 0.875000 0.0
1.000000 0.875000 0.0
0.125000 1.000000 0.0
0.000000 1.000000 0.0
0.250000 1.000000 0.0
0.375000 1.000000 0.0
0.500000 1.000000 0.0
0.625000 1.000000 0.0
0.750000 1.000000 0.0
0.875000 1.000000 0.0
1.000000 1.000000 0.0

CELLS 64 320
4 0 1 2 3
4 1 4 5 2
4 4 6 7 5
4 6 8 9 7
4 8 10 11 9
4 10 12 13 11
4 12 14 15 13
4 14 16 17 15
4 3 2 18 19
4 2 5 20 18
4 5 7 21 20
4 7 9 22 21
4 9 11 23 22
4 11 13 24 23
4 13 15 25 24
4 15 17 26 25
4 19 18 27 28
4 18 20 29 27
4 20 21 30 29
4 21 22 31 30
4 22 23 32 31
4 23 24 33 32
4 24 25 34 33
4 25 26 35 34
4 28 27 36 37
4 27 29 38 36
4 29 30 39 38
4 30 31 40 39
4 31 32 41 40
4 32 33 42 41
4 33 34 43 42
4 34 35 44 43
4 37 36 45 46
4 36 38 47 45
4 38 39 48 47
4 39 40 49 48
4 40 41 50 49
4 41 42 51 50
4 42 43 52 51
4 43 44 53 52
4 46 45 54 55
4 45 47 56 54
4 47 48 57 56
4 48 49 58 57
4 49 50 59 58
4 50 51 60 59
4 51 52 61 60
4 52 53 62 61
4 55 54 63 64
4 54 56 65 63
4 56 57 66 65
4 57 58 67 66
4 58 59 68 67
4 59 60 69 68
4 60 61 70 69
4 61 62 71 70
4 64 63 72 73
4 63 65 74 72
4 65 66 75 74
4 66 67 76 75
4 67 68 77 76
4 68 69 78 77
4 69 70 79 78
4 70 71 80 79

CELL_TYPES 64
9
9
9
9
9
9
9
9
9
9
9
9
9
9
9
9
9
9
9
9
9
9
9
9
9
9
9
9
9
9
9
9
9
9
9
9
9
9
9
9
9
9
9
9
9
9
9
9
9
9
9
9
9
9
9
9
9
9
9
9
9
9
9
9

CELL_DATA 64
SCALARS cell_type_color int 1
LOOKUP_TABLE default
0
0
0
0
0
0
0
0
0
0
0
0
0
0
0
0
0
0
0
0
0
0
0
0
0
0
0
0
0
0
0
0
0
0
0
0
0
0
0
0
0
0
0
0
0
0
0
0
0
0
0
0
0
0
0
0
0
0
0
0
0
0
0
0

SCALARS leaf_id int 1
LOOKUP_TABLE default
1
2
3
4
5
6
7
8
9
10
11
12
13
14
15
16
17
18
19
20
21
22
23
24
25
26
27
28
29
30
31
32
33
34
35
36
37
38
39
40
41
42
43
44
45
46
47
48
49
50
51
52
53
54
55
56
57
58
59
60
61
62
63
64

SCALARS level int 1
LOOKUP_TABLE default
3
3
3
3
3
3
3
3
3
3
3
3
3
3
3
3
3
3
3
3
3
3
3
3
3
3
3
3
3
3
3
3
3
3
3
3
3
3
3
3
3
3
3
3
3
3
3
3
3
3
3
3
3
3
3
3
3
3
3
3
3
3
3
3

SCALARS parent_id int 1
LOOKUP_TABLE default
80
80
72
72
66
66
71
71
80
80
72
72
66
66
71
71
65
65
75
75
69
69
74
74
65
65
75
75
69
69
74
74
67
67
77
77
70
70
76
76
67
67
77
77
70
70
76
76
68
68
79
79
73
73
78
78
68
68
79
79
73
73
78
78

SCALARS is_hanging int 1
LOOKUP_TABLE default
0
0
0
0
0
0
0
0
0
0
0
0
0
0
0
0
0
0
0
0
0
0
0
0
0
0
0
0
0
0
0
0
0
0
0
0
0
0
0
0
0
0
0
0
0
0
0
0
0
0
0
0
0
0
0
0
0
0
0
0
0
0
0
0
