# vtk DataFile Version 2.0
QuadtreeAggregations Generated Mesh
ASCII
DATASET UNSTRUCTURED_GRID
POINTS 0 double

CELLS 0 0

CELL_TYPES 0

CELL_DATA 0
SCALARS cell_type_color int 1
LOOKUP_TABLE default

SCALARS leaf_id int 1
LOOKUP_TABLE default

SCALARS level int 1
LOOKUP_TABLE default

SCALARS parent_id int 1
LOOKUP_TABLE default

SCALARS is_hanging int 1
LOOKUP_TABLE default
